! jPCBSim: Simulation Results For /home/radioactive/opt/Projects//bpf_915 Project.
! Warning: S12 and S22 are actually just S21 and S11.  This is only true if your device is port-to-port symetrical!
! Frequency       S11                S21                S12                S22
# MHz  S  RI R  50
0.000   -1.006   0.000   -0.011   0.000   -0.011   0.000   -1.006   0.000
1.221   -1.006   -0.002   -0.011   -0.001   -0.011   -0.001   -1.006   -0.002
2.441   -1.006   -0.004   -0.011   -0.001   -0.011   -0.001   -1.006   -0.004
3.662   -1.006   -0.006   -0.011   -0.002   -0.011   -0.002   -1.006   -0.006
4.883   -1.006   -0.007   -0.011   -0.003   -0.011   -0.003   -1.006   -0.007
6.104   -1.006   -0.009   -0.011   -0.004   -0.011   -0.004   -1.006   -0.009
7.324   -1.005   -0.011   -0.011   -0.004   -0.011   -0.004   -1.005   -0.011
8.545   -1.005   -0.013   -0.010   -0.005   -0.010   -0.005   -1.005   -0.013
9.766   -1.005   -0.015   -0.010   -0.006   -0.010   -0.006   -1.005   -0.015
10.986   -1.005   -0.017   -0.010   -0.006   -0.010   -0.006   -1.005   -0.017
12.207   -1.005   -0.018   -0.009   -0.007   -0.009   -0.007   -1.005   -0.018
13.428   -1.004   -0.020   -0.009   -0.007   -0.009   -0.007   -1.004   -0.020
14.648   -1.004   -0.022   -0.008   -0.008   -0.008   -0.008   -1.004   -0.022
15.869   -1.004   -0.024   -0.008   -0.008   -0.008   -0.008   -1.004   -0.024
17.090   -1.004   -0.026   -0.007   -0.009   -0.007   -0.009   -1.004   -0.026
18.311   -1.003   -0.027   -0.007   -0.009   -0.007   -0.009   -1.003   -0.027
19.531   -1.003   -0.029   -0.006   -0.010   -0.006   -0.010   -1.003   -0.029
20.752   -1.003   -0.031   -0.006   -0.010   -0.006   -0.010   -1.003   -0.031
21.973   -1.002   -0.032   -0.005   -0.010   -0.005   -0.010   -1.002   -0.032
23.193   -1.002   -0.034   -0.004   -0.011   -0.004   -0.011   -1.002   -0.034
24.414   -1.002   -0.036   -0.004   -0.011   -0.004   -0.011   -1.002   -0.036
25.635   -1.001   -0.037   -0.003   -0.011   -0.003   -0.011   -1.001   -0.037
26.855   -1.001   -0.039   -0.002   -0.011   -0.002   -0.011   -1.001   -0.039
28.076   -1.000   -0.041   -0.002   -0.012   -0.002   -0.012   -1.000   -0.041
29.297   -1.000   -0.042   -0.001   -0.012   -0.001   -0.012   -1.000   -0.042
30.518   -1.000   -0.044   -0.000   -0.012   -0.000   -0.012   -1.000   -0.044
31.738   -0.999   -0.045   0.000   -0.012   0.000   -0.012   -0.999   -0.045
32.959   -0.999   -0.047   0.001   -0.012   0.001   -0.012   -0.999   -0.047
34.180   -0.998   -0.048   0.002   -0.012   0.002   -0.012   -0.998   -0.048
35.400   -0.998   -0.050   0.003   -0.012   0.003   -0.012   -0.998   -0.050
36.621   -0.997   -0.051   0.003   -0.011   0.003   -0.011   -0.997   -0.051
37.842   -0.997   -0.052   0.004   -0.011   0.004   -0.011   -0.997   -0.052
39.063   -0.997   -0.054   0.005   -0.011   0.005   -0.011   -0.997   -0.054
40.283   -0.996   -0.055   0.005   -0.011   0.005   -0.011   -0.996   -0.055
41.504   -0.996   -0.057   0.006   -0.010   0.006   -0.010   -0.996   -0.057
42.725   -0.995   -0.058   0.006   -0.010   0.006   -0.010   -0.995   -0.058
43.945   -0.995   -0.059   0.007   -0.010   0.007   -0.010   -0.995   -0.059
45.166   -0.995   -0.060   0.008   -0.009   0.008   -0.009   -0.995   -0.060
46.387   -0.994   -0.062   0.008   -0.009   0.008   -0.009   -0.994   -0.062
47.607   -0.994   -0.063   0.009   -0.008   0.009   -0.008   -0.994   -0.063
48.828   -0.994   -0.064   0.009   -0.008   0.009   -0.008   -0.994   -0.064
50.049   -0.993   -0.065   0.009   -0.007   0.009   -0.007   -0.993   -0.065
51.270   -0.993   -0.067   0.010   -0.007   0.010   -0.007   -0.993   -0.067
52.490   -0.993   -0.068   0.010   -0.006   0.010   -0.006   -0.993   -0.068
53.711   -0.992   -0.069   0.011   -0.005   0.011   -0.005   -0.992   -0.069
54.932   -0.992   -0.070   0.011   -0.005   0.011   -0.005   -0.992   -0.070
56.152   -0.992   -0.071   0.011   -0.004   0.011   -0.004   -0.992   -0.071
57.373   -0.992   -0.073   0.011   -0.003   0.011   -0.003   -0.992   -0.073
58.594   -0.991   -0.074   0.011   -0.003   0.011   -0.003   -0.991   -0.074
59.814   -0.991   -0.075   0.012   -0.002   0.012   -0.002   -0.991   -0.075
61.035   -0.991   -0.076   0.012   -0.001   0.012   -0.001   -0.991   -0.076
62.256   -0.991   -0.077   0.012   -0.001   0.012   -0.001   -0.991   -0.077
63.477   -0.991   -0.078   0.012   0.000   0.012   0.000   -0.991   -0.078
64.697   -0.991   -0.079   0.012   0.001   0.012   0.001   -0.991   -0.079
65.918   -0.991   -0.081   0.011   0.002   0.011   0.002   -0.991   -0.081
67.139   -0.990   -0.082   0.011   0.002   0.011   0.002   -0.990   -0.082
68.359   -0.990   -0.083   0.011   0.003   0.011   0.003   -0.990   -0.083
69.580   -0.990   -0.084   0.011   0.004   0.011   0.004   -0.990   -0.084
70.801   -0.990   -0.085   0.011   0.004   0.011   0.004   -0.990   -0.085
72.021   -0.990   -0.086   0.010   0.005   0.010   0.005   -0.990   -0.086
73.242   -0.990   -0.088   0.010   0.005   0.010   0.005   -0.990   -0.088
74.463   -0.990   -0.089   0.009   0.006   0.009   0.006   -0.990   -0.089
75.684   -0.990   -0.090   0.009   0.007   0.009   0.007   -0.990   -0.090
76.904   -0.991   -0.091   0.009   0.007   0.009   0.007   -0.991   -0.091
78.125   -0.991   -0.092   0.008   0.008   0.008   0.008   -0.991   -0.092
79.346   -0.991   -0.094   0.008   0.008   0.008   0.008   -0.991   -0.094
80.566   -0.991   -0.095   0.007   0.008   0.007   0.008   -0.991   -0.095
81.787   -0.991   -0.096   0.006   0.009   0.006   0.009   -0.991   -0.096
83.008   -0.991   -0.097   0.006   0.009   0.006   0.009   -0.991   -0.097
84.229   -0.991   -0.099   0.005   0.010   0.005   0.010   -0.991   -0.099
85.449   -0.991   -0.100   0.004   0.010   0.004   0.010   -0.991   -0.100
86.670   -0.992   -0.101   0.004   0.010   0.004   0.010   -0.992   -0.101
87.891   -0.992   -0.103   0.003   0.010   0.003   0.010   -0.992   -0.103
89.111   -0.992   -0.104   0.002   0.010   0.002   0.010   -0.992   -0.104
90.332   -0.992   -0.106   0.002   0.011   0.002   0.011   -0.992   -0.106
91.553   -0.992   -0.107   0.001   0.011   0.001   0.011   -0.992   -0.107
92.773   -0.992   -0.108   0.000   0.011   0.000   0.011   -0.992   -0.108
93.994   -0.993   -0.110   -0.000   0.011   -0.000   0.011   -0.993   -0.110
95.215   -0.993   -0.111   -0.001   0.011   -0.001   0.011   -0.993   -0.111
96.436   -0.993   -0.113   -0.002   0.010   -0.002   0.010   -0.993   -0.113
97.656   -0.993   -0.114   -0.003   0.010   -0.003   0.010   -0.993   -0.114
98.877   -0.993   -0.116   -0.003   0.010   -0.003   0.010   -0.993   -0.116
100.098   -0.994   -0.118   -0.004   0.010   -0.004   0.010   -0.994   -0.118
101.318   -0.994   -0.119   -0.005   0.010   -0.005   0.010   -0.994   -0.119
102.539   -0.994   -0.121   -0.005   0.009   -0.005   0.009   -0.994   -0.121
103.760   -0.994   -0.122   -0.006   0.009   -0.006   0.009   -0.994   -0.122
104.980   -0.994   -0.124   -0.006   0.008   -0.006   0.008   -0.994   -0.124
106.201   -0.994   -0.126   -0.007   0.008   -0.007   0.008   -0.994   -0.126
107.422   -0.994   -0.128   -0.008   0.008   -0.008   0.008   -0.994   -0.128
108.643   -0.995   -0.129   -0.008   0.007   -0.008   0.007   -0.995   -0.129
109.863   -0.995   -0.131   -0.009   0.006   -0.009   0.006   -0.995   -0.131
111.084   -0.995   -0.133   -0.009   0.006   -0.009   0.006   -0.995   -0.133
112.305   -0.995   -0.135   -0.010   0.005   -0.010   0.005   -0.995   -0.135
113.525   -0.995   -0.136   -0.010   0.005   -0.010   0.005   -0.995   -0.136
114.746   -0.995   -0.138   -0.010   0.004   -0.010   0.004   -0.995   -0.138
115.967   -0.995   -0.140   -0.011   0.003   -0.011   0.003   -0.995   -0.140
117.188   -0.995   -0.142   -0.011   0.003   -0.011   0.003   -0.995   -0.142
118.408   -0.995   -0.144   -0.011   0.002   -0.011   0.002   -0.995   -0.144
119.629   -0.995   -0.146   -0.011   0.001   -0.011   0.001   -0.995   -0.146
120.850   -0.994   -0.147   -0.011   0.001   -0.011   0.001   -0.994   -0.147
122.070   -0.994   -0.149   -0.011   -0.000   -0.011   -0.000   -0.994   -0.149
123.291   -0.994   -0.151   -0.012   -0.001   -0.012   -0.001   -0.994   -0.151
124.512   -0.994   -0.153   -0.012   -0.002   -0.012   -0.002   -0.994   -0.153
125.732   -0.994   -0.155   -0.011   -0.002   -0.011   -0.002   -0.994   -0.155
126.953   -0.994   -0.157   -0.011   -0.003   -0.011   -0.003   -0.994   -0.157
128.174   -0.993   -0.159   -0.011   -0.004   -0.011   -0.004   -0.993   -0.159
129.395   -0.993   -0.161   -0.011   -0.005   -0.011   -0.005   -0.993   -0.161
130.615   -0.993   -0.162   -0.011   -0.005   -0.011   -0.005   -0.993   -0.162
131.836   -0.992   -0.164   -0.011   -0.006   -0.011   -0.006   -0.992   -0.164
133.057   -0.992   -0.166   -0.010   -0.007   -0.010   -0.007   -0.992   -0.166
134.277   -0.992   -0.168   -0.010   -0.007   -0.010   -0.007   -0.992   -0.168
135.498   -0.991   -0.170   -0.010   -0.008   -0.010   -0.008   -0.991   -0.170
136.719   -0.991   -0.172   -0.009   -0.009   -0.009   -0.009   -0.991   -0.172
137.939   -0.990   -0.174   -0.009   -0.009   -0.009   -0.009   -0.990   -0.174
139.160   -0.990   -0.175   -0.008   -0.010   -0.008   -0.010   -0.990   -0.175
140.381   -0.989   -0.177   -0.008   -0.010   -0.008   -0.010   -0.989   -0.177
141.602   -0.989   -0.179   -0.007   -0.011   -0.007   -0.011   -0.989   -0.179
142.822   -0.988   -0.181   -0.007   -0.011   -0.007   -0.011   -0.988   -0.181
144.043   -0.988   -0.183   -0.006   -0.012   -0.006   -0.012   -0.988   -0.183
145.264   -0.987   -0.184   -0.005   -0.012   -0.005   -0.012   -0.987   -0.184
146.484   -0.987   -0.186   -0.005   -0.012   -0.005   -0.012   -0.987   -0.186
147.705   -0.986   -0.188   -0.004   -0.013   -0.004   -0.013   -0.986   -0.188
148.926   -0.985   -0.190   -0.003   -0.013   -0.003   -0.013   -0.985   -0.190
150.146   -0.985   -0.191   -0.003   -0.013   -0.003   -0.013   -0.985   -0.191
151.367   -0.984   -0.193   -0.002   -0.013   -0.002   -0.013   -0.984   -0.193
152.588   -0.984   -0.195   -0.001   -0.013   -0.001   -0.013   -0.984   -0.195
153.809   -0.983   -0.196   -0.000   -0.014   -0.000   -0.014   -0.983   -0.196
155.029   -0.982   -0.198   0.000   -0.014   0.000   -0.014   -0.982   -0.198
156.250   -0.982   -0.199   0.001   -0.014   0.001   -0.014   -0.982   -0.199
157.471   -0.981   -0.201   0.002   -0.014   0.002   -0.014   -0.981   -0.201
158.691   -0.980   -0.202   0.003   -0.013   0.003   -0.013   -0.980   -0.202
159.912   -0.979   -0.204   0.003   -0.013   0.003   -0.013   -0.979   -0.204
161.133   -0.979   -0.205   0.004   -0.013   0.004   -0.013   -0.979   -0.205
162.354   -0.978   -0.207   0.005   -0.013   0.005   -0.013   -0.978   -0.207
163.574   -0.977   -0.208   0.005   -0.013   0.005   -0.013   -0.977   -0.208
164.795   -0.977   -0.210   0.006   -0.012   0.006   -0.012   -0.977   -0.210
166.016   -0.976   -0.211   0.007   -0.012   0.007   -0.012   -0.976   -0.211
167.236   -0.975   -0.213   0.007   -0.012   0.007   -0.012   -0.975   -0.213
168.457   -0.975   -0.214   0.008   -0.011   0.008   -0.011   -0.975   -0.214
169.678   -0.974   -0.215   0.008   -0.011   0.008   -0.011   -0.974   -0.215
170.898   -0.973   -0.217   0.009   -0.010   0.009   -0.010   -0.973   -0.217
172.119   -0.973   -0.218   0.010   -0.010   0.010   -0.010   -0.973   -0.218
173.340   -0.972   -0.219   0.010   -0.009   0.010   -0.009   -0.972   -0.219
174.561   -0.971   -0.220   0.010   -0.009   0.010   -0.009   -0.971   -0.220
175.781   -0.971   -0.222   0.011   -0.008   0.011   -0.008   -0.971   -0.222
177.002   -0.970   -0.223   0.011   -0.007   0.011   -0.007   -0.970   -0.223
178.223   -0.970   -0.224   0.012   -0.007   0.012   -0.007   -0.970   -0.224
179.443   -0.969   -0.225   0.012   -0.006   0.012   -0.006   -0.969   -0.225
180.664   -0.969   -0.226   0.012   -0.005   0.012   -0.005   -0.969   -0.226
181.885   -0.968   -0.228   0.012   -0.005   0.012   -0.005   -0.968   -0.228
183.105   -0.968   -0.229   0.012   -0.004   0.012   -0.004   -0.968   -0.229
184.326   -0.967   -0.230   0.012   -0.003   0.012   -0.003   -0.967   -0.230
185.547   -0.967   -0.231   0.013   -0.002   0.013   -0.002   -0.967   -0.231
186.768   -0.966   -0.232   0.013   -0.002   0.013   -0.002   -0.966   -0.232
187.988   -0.966   -0.233   0.012   -0.001   0.012   -0.001   -0.966   -0.233
189.209   -0.965   -0.234   0.012   -0.000   0.012   -0.000   -0.965   -0.234
190.430   -0.965   -0.236   0.012   0.001   0.012   0.001   -0.965   -0.236
191.650   -0.965   -0.237   0.012   0.001   0.012   0.001   -0.965   -0.237
192.871   -0.964   -0.238   0.012   0.002   0.012   0.002   -0.964   -0.238
194.092   -0.964   -0.239   0.012   0.003   0.012   0.003   -0.964   -0.239
195.313   -0.964   -0.240   0.011   0.003   0.011   0.003   -0.964   -0.240
196.533   -0.963   -0.241   0.011   0.004   0.011   0.004   -0.963   -0.241
197.754   -0.963   -0.242   0.011   0.005   0.011   0.005   -0.963   -0.242
198.975   -0.963   -0.244   0.010   0.005   0.010   0.005   -0.963   -0.244
200.195   -0.963   -0.245   0.010   0.006   0.010   0.006   -0.963   -0.245
201.416   -0.962   -0.246   0.009   0.006   0.009   0.006   -0.962   -0.246
202.637   -0.962   -0.247   0.009   0.007   0.009   0.007   -0.962   -0.247
203.857   -0.962   -0.248   0.008   0.007   0.008   0.007   -0.962   -0.248
205.078   -0.962   -0.250   0.008   0.008   0.008   0.008   -0.962   -0.250
206.299   -0.962   -0.251   0.007   0.008   0.007   0.008   -0.962   -0.251
207.520   -0.962   -0.252   0.006   0.008   0.006   0.008   -0.962   -0.252
208.740   -0.961   -0.253   0.006   0.009   0.006   0.009   -0.961   -0.253
209.961   -0.961   -0.255   0.005   0.009   0.005   0.009   -0.961   -0.255
211.182   -0.961   -0.256   0.004   0.009   0.004   0.009   -0.961   -0.256
212.402   -0.961   -0.257   0.003   0.009   0.003   0.009   -0.961   -0.257
213.623   -0.961   -0.259   0.003   0.010   0.003   0.010   -0.961   -0.259
214.844   -0.961   -0.260   0.002   0.010   0.002   0.010   -0.961   -0.260
216.064   -0.961   -0.261   0.001   0.010   0.001   0.010   -0.961   -0.261
217.285   -0.961   -0.263   0.001   0.010   0.001   0.010   -0.961   -0.263
218.506   -0.961   -0.264   -0.000   0.010   -0.000   0.010   -0.961   -0.264
219.727   -0.961   -0.266   -0.001   0.010   -0.001   0.010   -0.961   -0.266
220.947   -0.961   -0.267   -0.002   0.009   -0.002   0.009   -0.961   -0.267
222.168   -0.961   -0.269   -0.002   0.009   -0.002   0.009   -0.961   -0.269
223.389   -0.961   -0.270   -0.003   0.009   -0.003   0.009   -0.961   -0.270
224.609   -0.961   -0.272   -0.004   0.009   -0.004   0.009   -0.961   -0.272
225.830   -0.961   -0.273   -0.005   0.008   -0.005   0.008   -0.961   -0.273
227.051   -0.961   -0.275   -0.005   0.008   -0.005   0.008   -0.961   -0.275
228.271   -0.960   -0.277   -0.006   0.008   -0.006   0.008   -0.960   -0.277
229.492   -0.960   -0.278   -0.007   0.007   -0.007   0.007   -0.960   -0.278
230.713   -0.960   -0.280   -0.007   0.007   -0.007   0.007   -0.960   -0.280
231.934   -0.960   -0.282   -0.008   0.006   -0.008   0.006   -0.960   -0.282
233.154   -0.960   -0.284   -0.008   0.006   -0.008   0.006   -0.960   -0.284
234.375   -0.960   -0.285   -0.009   0.005   -0.009   0.005   -0.960   -0.285
235.596   -0.960   -0.287   -0.009   0.004   -0.009   0.004   -0.960   -0.287
236.816   -0.960   -0.289   -0.010   0.004   -0.010   0.004   -0.960   -0.289
238.037   -0.959   -0.291   -0.010   0.003   -0.010   0.003   -0.959   -0.291
239.258   -0.959   -0.292   -0.010   0.002   -0.010   0.002   -0.959   -0.292
240.479   -0.959   -0.294   -0.011   0.002   -0.011   0.002   -0.959   -0.294
241.699   -0.959   -0.296   -0.011   0.001   -0.011   0.001   -0.959   -0.296
242.920   -0.958   -0.298   -0.011   0.000   -0.011   0.000   -0.958   -0.298
244.141   -0.958   -0.300   -0.011   -0.001   -0.011   -0.001   -0.958   -0.300
245.361   -0.958   -0.302   -0.011   -0.001   -0.011   -0.001   -0.958   -0.302
246.582   -0.957   -0.304   -0.011   -0.002   -0.011   -0.002   -0.957   -0.304
247.803   -0.957   -0.306   -0.011   -0.003   -0.011   -0.003   -0.957   -0.306
249.023   -0.957   -0.308   -0.011   -0.004   -0.011   -0.004   -0.957   -0.308
250.244   -0.956   -0.310   -0.011   -0.004   -0.011   -0.004   -0.956   -0.310
251.465   -0.956   -0.312   -0.011   -0.005   -0.011   -0.005   -0.956   -0.312
252.686   -0.955   -0.313   -0.011   -0.006   -0.011   -0.006   -0.955   -0.313
253.906   -0.955   -0.315   -0.011   -0.007   -0.011   -0.007   -0.955   -0.315
255.127   -0.954   -0.317   -0.011   -0.008   -0.011   -0.008   -0.954   -0.317
256.348   -0.954   -0.319   -0.010   -0.008   -0.010   -0.008   -0.954   -0.319
257.568   -0.953   -0.321   -0.010   -0.009   -0.010   -0.009   -0.953   -0.321
258.789   -0.953   -0.323   -0.010   -0.010   -0.010   -0.010   -0.953   -0.323
260.010   -0.952   -0.325   -0.009   -0.010   -0.009   -0.010   -0.952   -0.325
261.230   -0.951   -0.327   -0.009   -0.011   -0.009   -0.011   -0.951   -0.327
262.451   -0.951   -0.329   -0.008   -0.012   -0.008   -0.012   -0.951   -0.329
263.672   -0.950   -0.331   -0.008   -0.012   -0.008   -0.012   -0.950   -0.331
264.893   -0.949   -0.333   -0.007   -0.013   -0.007   -0.013   -0.949   -0.333
266.113   -0.948   -0.335   -0.006   -0.013   -0.006   -0.013   -0.948   -0.335
267.334   -0.947   -0.337   -0.006   -0.014   -0.006   -0.014   -0.947   -0.337
268.555   -0.947   -0.338   -0.005   -0.014   -0.005   -0.014   -0.947   -0.338
269.775   -0.946   -0.340   -0.004   -0.015   -0.004   -0.015   -0.946   -0.340
270.996   -0.945   -0.342   -0.004   -0.015   -0.004   -0.015   -0.945   -0.342
272.217   -0.944   -0.344   -0.003   -0.015   -0.003   -0.015   -0.944   -0.344
273.438   -0.943   -0.346   -0.002   -0.016   -0.002   -0.016   -0.943   -0.346
274.658   -0.942   -0.348   -0.001   -0.016   -0.001   -0.016   -0.942   -0.348
275.879   -0.941   -0.349   -0.001   -0.016   -0.001   -0.016   -0.941   -0.349
277.100   -0.940   -0.351   0.000   -0.016   0.000   -0.016   -0.940   -0.351
278.320   -0.939   -0.353   0.001   -0.016   0.001   -0.016   -0.939   -0.353
279.541   -0.938   -0.354   0.002   -0.016   0.002   -0.016   -0.938   -0.354
280.762   -0.937   -0.356   0.003   -0.016   0.003   -0.016   -0.937   -0.356
281.982   -0.936   -0.358   0.003   -0.016   0.003   -0.016   -0.936   -0.358
283.203   -0.935   -0.359   0.004   -0.016   0.004   -0.016   -0.935   -0.359
284.424   -0.934   -0.361   0.005   -0.016   0.005   -0.016   -0.934   -0.361
285.645   -0.933   -0.362   0.006   -0.016   0.006   -0.016   -0.933   -0.362
286.865   -0.932   -0.364   0.006   -0.015   0.006   -0.015   -0.932   -0.364
288.086   -0.931   -0.366   0.007   -0.015   0.007   -0.015   -0.931   -0.366
289.307   -0.930   -0.367   0.008   -0.015   0.008   -0.015   -0.930   -0.367
290.527   -0.929   -0.368   0.009   -0.014   0.009   -0.014   -0.929   -0.368
291.748   -0.928   -0.370   0.009   -0.014   0.009   -0.014   -0.928   -0.370
292.969   -0.927   -0.371   0.010   -0.013   0.010   -0.013   -0.927   -0.371
294.189   -0.926   -0.373   0.011   -0.013   0.011   -0.013   -0.926   -0.373
295.410   -0.925   -0.374   0.011   -0.012   0.011   -0.012   -0.925   -0.374
296.631   -0.924   -0.375   0.012   -0.012   0.012   -0.012   -0.924   -0.375
297.852   -0.923   -0.377   0.012   -0.011   0.012   -0.011   -0.923   -0.377
299.072   -0.922   -0.378   0.013   -0.010   0.013   -0.010   -0.922   -0.378
300.293   -0.921   -0.379   0.013   -0.010   0.013   -0.010   -0.921   -0.379
301.514   -0.920   -0.381   0.013   -0.009   0.013   -0.009   -0.920   -0.381
302.734   -0.919   -0.382   0.014   -0.008   0.014   -0.008   -0.919   -0.382
303.955   -0.918   -0.383   0.014   -0.008   0.014   -0.008   -0.918   -0.383
305.176   -0.917   -0.384   0.014   -0.007   0.014   -0.007   -0.917   -0.384
306.396   -0.917   -0.385   0.014   -0.006   0.014   -0.006   -0.917   -0.385
307.617   -0.916   -0.387   0.015   -0.005   0.015   -0.005   -0.916   -0.387
308.838   -0.915   -0.388   0.015   -0.005   0.015   -0.005   -0.915   -0.388
310.059   -0.914   -0.389   0.015   -0.004   0.015   -0.004   -0.914   -0.389
311.279   -0.913   -0.390   0.015   -0.003   0.015   -0.003   -0.913   -0.390
312.500   -0.912   -0.391   0.015   -0.002   0.015   -0.002   -0.912   -0.391
313.721   -0.912   -0.392   0.015   -0.001   0.015   -0.001   -0.912   -0.392
314.941   -0.911   -0.393   0.014   -0.001   0.014   -0.001   -0.911   -0.393
316.162   -0.910   -0.395   0.014   0.000   0.014   0.000   -0.910   -0.395
317.383   -0.909   -0.396   0.014   0.001   0.014   0.001   -0.909   -0.396
318.604   -0.909   -0.397   0.014   0.002   0.014   0.002   -0.909   -0.397
319.824   -0.908   -0.398   0.013   0.002   0.013   0.002   -0.908   -0.398
321.045   -0.908   -0.399   0.013   0.003   0.013   0.003   -0.908   -0.399
322.266   -0.907   -0.400   0.013   0.004   0.013   0.004   -0.907   -0.400
323.486   -0.906   -0.401   0.012   0.004   0.012   0.004   -0.906   -0.401
324.707   -0.906   -0.402   0.012   0.005   0.012   0.005   -0.906   -0.402
325.928   -0.905   -0.404   0.011   0.006   0.011   0.006   -0.905   -0.404
327.148   -0.905   -0.405   0.010   0.006   0.010   0.006   -0.905   -0.405
328.369   -0.904   -0.406   0.010   0.007   0.010   0.007   -0.904   -0.406
329.590   -0.904   -0.407   0.009   0.007   0.009   0.007   -0.904   -0.407
330.811   -0.903   -0.408   0.008   0.007   0.008   0.007   -0.903   -0.408
332.031   -0.903   -0.410   0.008   0.008   0.008   0.008   -0.903   -0.410
333.252   -0.902   -0.411   0.007   0.008   0.007   0.008   -0.902   -0.411
334.473   -0.902   -0.412   0.006   0.008   0.006   0.008   -0.902   -0.412
335.693   -0.902   -0.413   0.005   0.009   0.005   0.009   -0.902   -0.413
336.914   -0.901   -0.415   0.005   0.009   0.005   0.009   -0.901   -0.415
338.135   -0.901   -0.416   0.004   0.009   0.004   0.009   -0.901   -0.416
339.355   -0.901   -0.417   0.003   0.009   0.003   0.009   -0.901   -0.417
340.576   -0.900   -0.419   0.002   0.009   0.002   0.009   -0.900   -0.419
341.797   -0.900   -0.420   0.001   0.009   0.001   0.009   -0.900   -0.420
343.018   -0.900   -0.422   0.001   0.009   0.001   0.009   -0.900   -0.422
344.238   -0.899   -0.423   -0.000   0.009   -0.000   0.009   -0.899   -0.423
345.459   -0.899   -0.425   -0.001   0.009   -0.001   0.009   -0.899   -0.425
346.680   -0.899   -0.426   -0.002   0.008   -0.002   0.008   -0.899   -0.426
347.900   -0.898   -0.428   -0.003   0.008   -0.003   0.008   -0.898   -0.428
349.121   -0.898   -0.429   -0.003   0.008   -0.003   0.008   -0.898   -0.429
350.342   -0.898   -0.431   -0.004   0.007   -0.004   0.007   -0.898   -0.431
351.563   -0.897   -0.432   -0.005   0.007   -0.005   0.007   -0.897   -0.432
352.783   -0.897   -0.434   -0.005   0.007   -0.005   0.007   -0.897   -0.434
354.004   -0.897   -0.436   -0.006   0.006   -0.006   0.006   -0.897   -0.436
355.225   -0.896   -0.438   -0.007   0.005   -0.007   0.005   -0.896   -0.438
356.445   -0.896   -0.439   -0.007   0.005   -0.007   0.005   -0.896   -0.439
357.666   -0.896   -0.441   -0.008   0.004   -0.008   0.004   -0.896   -0.441
358.887   -0.895   -0.443   -0.008   0.004   -0.008   0.004   -0.895   -0.443
360.107   -0.895   -0.445   -0.009   0.003   -0.009   0.003   -0.895   -0.445
361.328   -0.894   -0.447   -0.009   0.002   -0.009   0.002   -0.894   -0.447
362.549   -0.894   -0.448   -0.010   0.001   -0.010   0.001   -0.894   -0.448
363.770   -0.893   -0.450   -0.010   0.000   -0.010   0.000   -0.893   -0.450
364.990   -0.893   -0.452   -0.010   -0.000   -0.010   -0.000   -0.893   -0.452
366.211   -0.892   -0.454   -0.011   -0.001   -0.011   -0.001   -0.892   -0.454
367.432   -0.892   -0.456   -0.011   -0.002   -0.011   -0.002   -0.892   -0.456
368.652   -0.891   -0.458   -0.011   -0.003   -0.011   -0.003   -0.891   -0.458
369.873   -0.891   -0.460   -0.011   -0.004   -0.011   -0.004   -0.891   -0.460
371.094   -0.890   -0.462   -0.011   -0.005   -0.011   -0.005   -0.890   -0.462
372.314   -0.889   -0.464   -0.011   -0.006   -0.011   -0.006   -0.889   -0.464
373.535   -0.889   -0.466   -0.011   -0.006   -0.011   -0.006   -0.889   -0.466
374.756   -0.888   -0.468   -0.011   -0.007   -0.011   -0.007   -0.888   -0.468
375.977   -0.887   -0.470   -0.011   -0.008   -0.011   -0.008   -0.887   -0.470
377.197   -0.886   -0.472   -0.011   -0.009   -0.011   -0.009   -0.886   -0.472
378.418   -0.886   -0.474   -0.010   -0.010   -0.010   -0.010   -0.886   -0.474
379.639   -0.885   -0.477   -0.010   -0.011   -0.010   -0.011   -0.885   -0.477
380.859   -0.884   -0.479   -0.010   -0.012   -0.010   -0.012   -0.884   -0.479
382.080   -0.883   -0.481   -0.009   -0.012   -0.009   -0.012   -0.883   -0.481
383.301   -0.882   -0.483   -0.009   -0.013   -0.009   -0.013   -0.882   -0.483
384.521   -0.881   -0.485   -0.008   -0.014   -0.008   -0.014   -0.881   -0.485
385.742   -0.880   -0.487   -0.008   -0.015   -0.008   -0.015   -0.880   -0.487
386.963   -0.879   -0.489   -0.007   -0.015   -0.007   -0.015   -0.879   -0.489
388.184   -0.878   -0.491   -0.006   -0.016   -0.006   -0.016   -0.878   -0.491
389.404   -0.877   -0.493   -0.006   -0.017   -0.006   -0.017   -0.877   -0.493
390.625   -0.875   -0.495   -0.005   -0.017   -0.005   -0.017   -0.875   -0.495
391.846   -0.874   -0.497   -0.004   -0.018   -0.004   -0.018   -0.874   -0.497
393.066   -0.873   -0.499   -0.003   -0.018   -0.003   -0.018   -0.873   -0.499
394.287   -0.872   -0.501   -0.003   -0.019   -0.003   -0.019   -0.872   -0.501
395.508   -0.871   -0.503   -0.002   -0.019   -0.002   -0.019   -0.871   -0.503
396.729   -0.869   -0.505   -0.001   -0.019   -0.001   -0.019   -0.869   -0.505
397.949   -0.868   -0.507   0.000   -0.020   0.000   -0.020   -0.868   -0.507
399.170   -0.867   -0.509   0.001   -0.020   0.001   -0.020   -0.867   -0.509
400.391   -0.865   -0.511   0.002   -0.020   0.002   -0.020   -0.865   -0.511
401.611   -0.864   -0.513   0.003   -0.020   0.003   -0.020   -0.864   -0.513
402.832   -0.862   -0.515   0.004   -0.020   0.004   -0.020   -0.862   -0.515
404.053   -0.861   -0.516   0.005   -0.020   0.005   -0.020   -0.861   -0.516
405.273   -0.859   -0.518   0.006   -0.020   0.006   -0.020   -0.859   -0.518
406.494   -0.858   -0.520   0.007   -0.020   0.007   -0.020   -0.858   -0.520
407.715   -0.857   -0.522   0.007   -0.020   0.007   -0.020   -0.857   -0.522
408.936   -0.855   -0.523   0.008   -0.020   0.008   -0.020   -0.855   -0.523
410.156   -0.854   -0.525   0.009   -0.019   0.009   -0.019   -0.854   -0.525
411.377   -0.852   -0.527   0.010   -0.019   0.010   -0.019   -0.852   -0.527
412.598   -0.850   -0.528   0.011   -0.019   0.011   -0.019   -0.850   -0.528
413.818   -0.849   -0.530   0.012   -0.018   0.012   -0.018   -0.849   -0.530
415.039   -0.847   -0.531   0.013   -0.018   0.013   -0.018   -0.847   -0.531
416.260   -0.846   -0.533   0.013   -0.017   0.013   -0.017   -0.846   -0.533
417.480   -0.844   -0.534   0.014   -0.017   0.014   -0.017   -0.844   -0.534
418.701   -0.843   -0.536   0.015   -0.016   0.015   -0.016   -0.843   -0.536
419.922   -0.841   -0.537   0.015   -0.015   0.015   -0.015   -0.841   -0.537
421.143   -0.840   -0.539   0.016   -0.015   0.016   -0.015   -0.840   -0.539
422.363   -0.838   -0.540   0.017   -0.014   0.017   -0.014   -0.838   -0.540
423.584   -0.837   -0.541   0.017   -0.013   0.017   -0.013   -0.837   -0.541
424.805   -0.835   -0.543   0.018   -0.012   0.018   -0.012   -0.835   -0.543
426.025   -0.834   -0.544   0.018   -0.012   0.018   -0.012   -0.834   -0.544
427.246   -0.832   -0.545   0.018   -0.011   0.018   -0.011   -0.832   -0.545
428.467   -0.831   -0.547   0.019   -0.010   0.019   -0.010   -0.831   -0.547
429.688   -0.830   -0.548   0.019   -0.009   0.019   -0.009   -0.830   -0.548
430.908   -0.828   -0.549   0.019   -0.008   0.019   -0.008   -0.828   -0.549
432.129   -0.827   -0.550   0.019   -0.007   0.019   -0.007   -0.827   -0.550
433.350   -0.825   -0.551   0.019   -0.006   0.019   -0.006   -0.825   -0.551
434.570   -0.824   -0.553   0.019   -0.005   0.019   -0.005   -0.824   -0.553
435.791   -0.823   -0.554   0.019   -0.005   0.019   -0.005   -0.823   -0.554
437.012   -0.821   -0.555   0.019   -0.004   0.019   -0.004   -0.821   -0.555
438.232   -0.820   -0.556   0.019   -0.003   0.019   -0.003   -0.820   -0.556
439.453   -0.819   -0.557   0.019   -0.002   0.019   -0.002   -0.819   -0.557
440.674   -0.818   -0.558   0.019   -0.001   0.019   -0.001   -0.818   -0.558
441.895   -0.817   -0.559   0.018   -0.000   0.018   -0.000   -0.817   -0.559
443.115   -0.815   -0.560   0.018   0.001   0.018   0.001   -0.815   -0.560
444.336   -0.814   -0.562   0.018   0.001   0.018   0.001   -0.814   -0.562
445.557   -0.813   -0.563   0.017   0.002   0.017   0.002   -0.813   -0.563
446.777   -0.812   -0.564   0.017   0.003   0.017   0.003   -0.812   -0.564
447.998   -0.811   -0.565   0.016   0.004   0.016   0.004   -0.811   -0.565
449.219   -0.810   -0.566   0.016   0.004   0.016   0.004   -0.810   -0.566
450.439   -0.809   -0.567   0.015   0.005   0.015   0.005   -0.809   -0.567
451.660   -0.808   -0.568   0.014   0.006   0.014   0.006   -0.808   -0.568
452.881   -0.807   -0.569   0.013   0.006   0.013   0.006   -0.807   -0.569
454.102   -0.806   -0.571   0.013   0.007   0.013   0.007   -0.806   -0.571
455.322   -0.805   -0.572   0.012   0.007   0.012   0.007   -0.805   -0.572
456.543   -0.804   -0.573   0.011   0.007   0.011   0.007   -0.804   -0.573
457.764   -0.803   -0.574   0.010   0.008   0.010   0.008   -0.803   -0.574
458.984   -0.803   -0.576   0.009   0.008   0.009   0.008   -0.803   -0.576
460.205   -0.802   -0.577   0.008   0.008   0.008   0.008   -0.802   -0.577
461.426   -0.801   -0.578   0.008   0.008   0.008   0.008   -0.801   -0.578
462.646   -0.800   -0.579   0.007   0.008   0.007   0.008   -0.800   -0.579
463.867   -0.799   -0.581   0.006   0.008   0.006   0.008   -0.799   -0.581